<?xml version="1.0" encoding="UTF-8"?>

<!-- generated on 07/07/2021 19:16:30 by Eclipse SUMO GUI Version 1.9.0
<configuration xmlns:xsi="http://www.w3.org/2001/XMLSchema-instance" xsi:noNamespaceSchemaLocation="http://sumo.dlr.de/xsd/sumoConfiguration.xsd">

    <input>
        <net-file value="net_config/manhattan.net.xml"/>
        <additional-files value="net_config/add.add.xml"/>
    </input>

    <output>
        <tripinfo-output value="net_config/tripinfo.xml"/>
    </output>

    <time>
        <step-length value="1"/>
    </time>

    <processing>
        <time-to-teleport value="0"/>
    </processing>

    <taxi_device>
        <device.taxi.dispatch-algorithm value="traci"/>
        <device.taxi.idle-algorithm value="randomCircling"/>
    </taxi_device>

    <traci_server>
        <remote-port value="56422"/>
    </traci_server>

    <gui_only>
        <gui-settings-file value="net_config/gui-settings.cfg"/>
        <tracker-interval value="1"/>
    </gui_only>

</configuration>
-->

<tripinfos xmlns:xsi="http://www.w3.org/2001/XMLSchema-instance" xsi:noNamespaceSchemaLocation="http://sumo.dlr.de/xsd/tripinfo_file.xsd">
    <tripinfo id="driver_50" depart="0.00" departLane="gneE567_0" departPos="60.28" departSpeed="0.00" departDelay="0.00" arrival="50.00" arrivalLane="gneE533_0" arrivalPos="35.67" arrivalSpeed="12.75" duration="50.00" routeLength="469.60" waitingTime="0.00" waitingCount="0" stopTime="0.00" timeLoss="10.68" rerouteNo="60" devices="tripinfo_driver_50 taxi_driver_50" vType="driver" speedFactor="0.94" vaporized="traci">
        <taxi customers="0" occupiedDistance="0.00" occupiedTime="0.00"/>
    </tripinfo>
    <tripinfo id="driver_54" depart="0.00" departLane="gneE560_0" departPos="29.22" departSpeed="0.00" departDelay="0.00" arrival="50.00" arrivalLane="gneE551_0" arrivalPos="8.73" arrivalSpeed="9.68" duration="50.00" routeLength="473.93" waitingTime="0.00" waitingCount="0" stopTime="0.00" timeLoss="17.30" rerouteNo="60" devices="tripinfo_driver_54 taxi_driver_54" vType="driver" speedFactor="1.01" vaporized="traci">
        <taxi customers="0" occupiedDistance="0.00" occupiedTime="0.00"/>
    </tripinfo>
    <tripinfo id="driver_34" depart="0.00" departLane="-gneE230_0" departPos="1.14" departSpeed="0.00" departDelay="0.00" arrival="100.00" arrivalLane="gneE265_0" arrivalPos="67.43" arrivalSpeed="12.91" duration="100.00" routeLength="1044.61" waitingTime="0.00" waitingCount="0" stopTime="0.00" timeLoss="19.84" rerouteNo="120" devices="tripinfo_driver_34 taxi_driver_34" vType="driver" speedFactor="1.02" vaporized="traci">
        <taxi customers="0" occupiedDistance="0.00" occupiedTime="0.00"/>
    </tripinfo>
    <tripinfo id="driver_37" depart="0.00" departLane="-gneE265_0" departPos="4.19" departSpeed="0.00" departDelay="0.00" arrival="100.00" arrivalLane=":gneJ149_11_0" arrivalPos="2.97" arrivalSpeed="3.75" duration="100.00" routeLength="968.06" waitingTime="0.00" waitingCount="0" stopTime="0.00" timeLoss="29.23" rerouteNo="120" devices="tripinfo_driver_37 taxi_driver_37" vType="driver" speedFactor="0.95" vaporized="traci">
        <taxi customers="0" occupiedDistance="0.00" occupiedTime="0.00"/>
    </tripinfo>
    <tripinfo id="driver_41" depart="0.00" departLane="-gneE268_0" departPos="17.29" departSpeed="0.00" departDelay="0.00" arrival="100.00" arrivalLane="-gneE275_0" arrivalPos="24.61" arrivalSpeed="16.78" duration="100.00" routeLength="1180.26" waitingTime="0.00" waitingCount="0" stopTime="0.00" timeLoss="27.39" rerouteNo="124" devices="tripinfo_driver_41 taxi_driver_41" vType="driver" speedFactor="1.08" vaporized="traci">
        <taxi customers="0" occupiedDistance="0.00" occupiedTime="0.00"/>
    </tripinfo>
    <tripinfo id="driver_46" depart="0.00" departLane="gneE493_0" departPos="46.62" departSpeed="0.00" departDelay="0.00" arrival="100.00" arrivalLane="gneE508_0" arrivalPos="27.89" arrivalSpeed="9.45" duration="100.00" routeLength="1059.37" waitingTime="0.00" waitingCount="0" stopTime="0.00" timeLoss="27.51" rerouteNo="123" devices="tripinfo_driver_46 taxi_driver_46" vType="driver" speedFactor="1.06" vaporized="traci">
        <taxi customers="0" occupiedDistance="0.00" occupiedTime="0.00"/>
    </tripinfo>
    <tripinfo id="driver_48" depart="0.00" departLane="-gneE509_0" departPos="43.39" departSpeed="0.00" departDelay="0.00" arrival="100.00" arrivalLane="gneE509_0" arrivalPos="61.29" arrivalSpeed="8.20" duration="100.00" routeLength="901.58" waitingTime="4.00" waitingCount="1" stopTime="0.00" timeLoss="31.72" rerouteNo="119" devices="tripinfo_driver_48 taxi_driver_48" vType="driver" speedFactor="0.99" vaporized="traci">
        <taxi customers="0" occupiedDistance="0.00" occupiedTime="0.00"/>
    </tripinfo>
    <tripinfo id="driver_49" depart="0.00" departLane="gneE557_0" departPos="40.77" departSpeed="0.00" departDelay="0.00" arrival="100.00" arrivalLane=":gneJ294_6_0" arrivalPos="5.99" arrivalSpeed="6.04" duration="100.00" routeLength="933.87" waitingTime="0.00" waitingCount="0" stopTime="0.00" timeLoss="23.02" rerouteNo="120" devices="tripinfo_driver_49 taxi_driver_49" vType="driver" speedFactor="0.97" vaporized="traci">
        <taxi customers="0" occupiedDistance="0.00" occupiedTime="0.00"/>
    </tripinfo>
    <personinfo id="customer_18" depart="0.00" type="DEFAULT_PEDTYPE">
        <ride waitingTime="71.00" vehicle="driver_56" depart="71.00" arrival="119.00" arrivalPos="89.60" duration="48.00" routeLength="437.81" timeLoss="18.83"/>
    </personinfo>
    <personinfo id="customer_0" depart="0.00" type="DEFAULT_PEDTYPE">
        <ride waitingTime="77.00" vehicle="driver_11" depart="77.00" arrival="129.00" arrivalPos="85.60" duration="52.00" routeLength="480.28" timeLoss="13.12"/>
    </personinfo>
    <personinfo id="customer_14" depart="0.00" type="DEFAULT_PEDTYPE">
        <ride waitingTime="59.00" vehicle="driver_40" depart="59.00" arrival="130.00" arrivalPos="85.60" duration="71.00" routeLength="606.86" timeLoss="24.08"/>
    </personinfo>
    <personinfo id="customer_1" depart="0.00" type="DEFAULT_PEDTYPE">
        <ride waitingTime="82.00" vehicle="driver_10" depart="82.00" arrival="134.00" arrivalPos="85.60" duration="52.00" routeLength="459.97" timeLoss="15.43"/>
    </personinfo>
    <personinfo id="customer_6" depart="0.00" type="DEFAULT_PEDTYPE">
        <ride waitingTime="69.00" vehicle="driver_16" depart="69.00" arrival="144.00" arrivalPos="85.60" duration="75.00" routeLength="721.28" timeLoss="24.78"/>
    </personinfo>
    <personinfo id="customer_3" depart="0.00" type="DEFAULT_PEDTYPE">
        <ride waitingTime="78.00" vehicle="driver_6" depart="78.00" arrival="148.00" arrivalPos="85.60" duration="70.00" routeLength="722.60" timeLoss="23.54"/>
    </personinfo>
    <personinfo id="customer_11" depart="0.00" type="DEFAULT_PEDTYPE">
        <ride waitingTime="70.00" vehicle="driver_42" depart="70.00" arrival="149.00" arrivalPos="85.60" duration="79.00" routeLength="766.65" timeLoss="21.45"/>
    </personinfo>
    <tripinfo id="driver_65" depart="72.00" departLane="-gneE507_0" departPos="65.19" departSpeed="0.00" departDelay="0.00" arrival="150.00" arrivalLane="-gneE561_0" arrivalPos="38.11" arrivalSpeed="13.08" duration="78.00" routeLength="761.55" waitingTime="0.00" waitingCount="0" stopTime="0.00" timeLoss="23.40" rerouteNo="96" devices="tripinfo_driver_65 taxi_driver_65" vType="driver" speedFactor="1.02" vaporized="traci">
        <taxi customers="0" occupiedDistance="0.00" occupiedTime="0.00"/>
    </tripinfo>
    <personinfo id="customer_17" depart="0.00" type="DEFAULT_PEDTYPE">
        <ride waitingTime="55.00" vehicle="driver_51" depart="55.00" arrival="152.00" arrivalPos="85.60" duration="97.00" routeLength="948.07" timeLoss="27.60"/>
    </personinfo>
    <personinfo id="customer_15" depart="0.00" type="DEFAULT_PEDTYPE">
        <ride waitingTime="94.00" vehicle="driver_59" depart="94.00" arrival="158.00" arrivalPos="85.60" duration="64.00" routeLength="593.44" timeLoss="18.85"/>
    </personinfo>
    <personinfo id="customer_25" depart="34.00" type="DEFAULT_PEDTYPE">
        <ride waitingTime="80.00" vehicle="driver_62" depart="114.00" arrival="158.00" arrivalPos="85.60" duration="44.00" routeLength="401.02" timeLoss="16.22"/>
    </personinfo>
    <personinfo id="customer_8" depart="0.00" type="DEFAULT_PEDTYPE">
        <ride waitingTime="87.00" vehicle="driver_22" depart="87.00" arrival="159.00" arrivalPos="85.60" duration="72.00" routeLength="775.02" timeLoss="17.39"/>
    </personinfo>
    <personinfo id="customer_2" depart="0.00" type="DEFAULT_PEDTYPE">
        <ride waitingTime="89.00" vehicle="driver_12" depart="89.00" arrival="163.00" arrivalPos="85.60" duration="74.00" routeLength="744.28" timeLoss="20.58"/>
    </personinfo>
    <personinfo id="customer_12" depart="0.00" type="DEFAULT_PEDTYPE">
        <ride waitingTime="112.00" vehicle="driver_43" depart="112.00" arrival="168.00" arrivalPos="85.60" duration="56.00" routeLength="524.86" timeLoss="13.01"/>
    </personinfo>
    <personinfo id="customer_16" depart="0.00" type="DEFAULT_PEDTYPE">
        <ride waitingTime="96.00" vehicle="driver_47" depart="96.00" arrival="169.00" arrivalPos="85.60" duration="73.00" routeLength="648.65" timeLoss="26.43"/>
    </personinfo>
    <personinfo id="customer_22" depart="20.00" type="DEFAULT_PEDTYPE">
        <ride waitingTime="86.00" vehicle="driver_32" depart="106.00" arrival="174.00" arrivalPos="185.60" duration="68.00" routeLength="625.65" timeLoss="21.76"/>
    </personinfo>
    <personinfo id="customer_19" depart="0.00" type="DEFAULT_PEDTYPE">
        <ride waitingTime="101.00" vehicle="driver_45" depart="101.00" arrival="177.00" arrivalPos="85.60" duration="76.00" routeLength="694.65" timeLoss="30.67"/>
    </personinfo>
    <personinfo id="customer_20" depart="10.00" type="DEFAULT_PEDTYPE">
        <ride waitingTime="93.00" vehicle="driver_26" depart="103.00" arrival="179.00" arrivalPos="85.60" duration="76.00" routeLength="723.23" timeLoss="25.85"/>
    </personinfo>
    <personinfo id="customer_10" depart="0.00" type="DEFAULT_PEDTYPE">
        <ride waitingTime="104.00" vehicle="driver_35" depart="104.00" arrival="182.00" arrivalPos="185.60" duration="78.00" routeLength="733.23" timeLoss="29.26"/>
    </personinfo>
    <personinfo id="customer_23" depart="22.00" type="DEFAULT_PEDTYPE">
        <ride waitingTime="103.00" vehicle="driver_20" depart="125.00" arrival="183.00" arrivalPos="85.60" duration="58.00" routeLength="511.97" timeLoss="20.44"/>
    </personinfo>
    <personinfo id="customer_21" depart="16.00" type="DEFAULT_PEDTYPE">
        <ride waitingTime="71.00" vehicle="driver_60" depart="87.00" arrival="189.00" arrivalPos="85.60" duration="102.00" routeLength="1012.07" timeLoss="30.35"/>
    </personinfo>
    <personinfo id="customer_28" depart="58.00" type="DEFAULT_PEDTYPE">
        <ride waitingTime="85.00" vehicle="driver_25" depart="143.00" arrival="194.00" arrivalPos="85.60" duration="51.00" routeLength="441.49" timeLoss="19.05"/>
    </personinfo>
    <personinfo id="customer_7" depart="0.00" type="DEFAULT_PEDTYPE">
        <ride waitingTime="118.00" vehicle="driver_23" depart="118.00" arrival="197.00" arrivalPos="85.60" duration="79.00" routeLength="802.49" timeLoss="22.43"/>
    </personinfo>
    <personinfo id="customer_30" depart="72.00" type="DEFAULT_PEDTYPE">
        <ride waitingTime="62.00" vehicle="driver_61" depart="134.00" arrival="198.00" arrivalPos="85.60" duration="64.00" routeLength="651.23" timeLoss="16.91"/>
    </personinfo>
    <tripinfo id="driver_52" depart="0.00" departLane="-gneE552_0" departPos="41.00" departSpeed="0.00" departDelay="0.00" arrival="200.00" arrivalLane=":gneJ280_2_0" arrivalPos="3.59" arrivalSpeed="5.99" duration="200.00" routeLength="1711.73" waitingTime="6.00" waitingCount="1" stopTime="0.00" timeLoss="41.76" rerouteNo="236" devices="tripinfo_driver_52 taxi_driver_52" vType="driver" speedFactor="0.96" vaporized="traci">
        <taxi customers="0" occupiedDistance="0.00" occupiedTime="0.00"/>
    </tripinfo>
    <personinfo id="customer_29" depart="68.00" type="DEFAULT_PEDTYPE">
        <ride waitingTime="43.00" vehicle="driver_0" depart="111.00" arrival="201.00" arrivalPos="85.60" duration="90.00" routeLength="899.28" timeLoss="24.00"/>
    </personinfo>
    <personinfo id="customer_13" depart="0.00" type="DEFAULT_PEDTYPE">
        <ride waitingTime="118.00" vehicle="driver_39" depart="118.00" arrival="204.00" arrivalPos="85.60" duration="86.00" routeLength="846.65" timeLoss="27.07"/>
    </personinfo>
    <personinfo id="customer_9" depart="0.00" type="DEFAULT_PEDTYPE">
        <ride waitingTime="100.00" vehicle="driver_15" depart="100.00" arrival="208.00" arrivalPos="85.60" duration="108.00" routeLength="1010.83" timeLoss="32.65"/>
    </personinfo>
    <personinfo id="customer_26" depart="42.00" type="DEFAULT_PEDTYPE">
        <ride waitingTime="93.00" vehicle="driver_2" depart="135.00" arrival="213.00" arrivalPos="85.60" duration="78.00" routeLength="802.81" timeLoss="22.43"/>
    </personinfo>
    <personinfo id="customer_34" depart="104.00" type="DEFAULT_PEDTYPE">
        <ride waitingTime="65.00" vehicle="driver_33" depart="169.00" arrival="215.00" arrivalPos="85.60" duration="46.00" routeLength="411.60" timeLoss="16.58"/>
    </personinfo>
    <personinfo id="customer_4" depart="0.00" type="DEFAULT_PEDTYPE">
        <ride waitingTime="138.00" vehicle="driver_4" depart="138.00" arrival="220.00" arrivalPos="85.60" duration="82.00" routeLength="637.81" timeLoss="35.86"/>
    </personinfo>
    <personinfo id="customer_27" depart="52.00" type="DEFAULT_PEDTYPE">
        <ride waitingTime="70.00" vehicle="driver_38" depart="122.00" arrival="222.00" arrivalPos="85.60" duration="100.00" routeLength="922.02" timeLoss="26.20"/>
    </personinfo>
    <personinfo id="customer_5" depart="0.00" type="DEFAULT_PEDTYPE">
        <ride waitingTime="105.00" vehicle="driver_55" depart="105.00" arrival="223.00" arrivalPos="85.60" duration="118.00" routeLength="1280.04" timeLoss="30.40"/>
    </personinfo>
    <personinfo id="customer_24" depart="26.00" type="DEFAULT_PEDTYPE">
        <ride waitingTime="90.00" vehicle="driver_1" depart="116.00" arrival="223.00" arrivalPos="85.60" duration="107.00" routeLength="950.97" timeLoss="38.55"/>
    </personinfo>
    <personinfo id="customer_35" depart="114.00" type="DEFAULT_PEDTYPE">
        <ride waitingTime="62.00" vehicle="driver_7" depart="176.00" arrival="240.00" arrivalPos="85.60" duration="64.00" routeLength="564.28" timeLoss="17.26"/>
    </personinfo>
    <tripinfo id="driver_58" depart="0.00" departLane="gneE563_0" departPos="18.49" departSpeed="0.00" departDelay="0.00" arrival="250.00" arrivalLane="-gneE519_0" arrivalPos="44.62" arrivalSpeed="12.76" duration="250.00" routeLength="2651.45" waitingTime="0.00" waitingCount="0" stopTime="0.00" timeLoss="76.53" rerouteNo="307" devices="tripinfo_driver_58 taxi_driver_58" vType="driver" speedFactor="1.03" vaporized="traci">
        <taxi customers="0" occupiedDistance="0.00" occupiedTime="0.00"/>
    </tripinfo>
    <personinfo id="customer_32" depart="92.00" type="DEFAULT_PEDTYPE">
        <ride waitingTime="90.00" vehicle="driver_17" depart="182.00" arrival="254.00" arrivalPos="85.60" duration="72.00" routeLength="742.39" timeLoss="16.06"/>
    </personinfo>
    <personinfo id="customer_31" depart="82.00" type="DEFAULT_PEDTYPE">
        <ride waitingTime="87.00" vehicle="driver_29" depart="169.00" arrival="258.00" arrivalPos="85.60" duration="89.00" routeLength="1010.86" timeLoss="21.66"/>
    </personinfo>
    <personinfo id="customer_33" depart="96.00" type="DEFAULT_PEDTYPE">
        <ride waitingTime="73.00" vehicle="driver_36" depart="169.00" arrival="266.00" arrivalPos="85.60" duration="97.00" routeLength="918.28" timeLoss="30.45"/>
    </personinfo>
    <personinfo id="customer_40" depart="164.00" type="DEFAULT_PEDTYPE">
        <ride waitingTime="73.00" vehicle="driver_63" depart="237.00" arrival="293.00" arrivalPos="85.60" duration="56.00" routeLength="612.39" timeLoss="14.53"/>
    </personinfo>
    <personinfo id="customer_44" depart="186.00" type="DEFAULT_PEDTYPE">
        <ride waitingTime="69.00" vehicle="driver_43" depart="255.00" arrival="300.00" arrivalPos="85.60" duration="45.00" routeLength="402.23" timeLoss="18.42"/>
    </personinfo>
    <tripinfo id="driver_16" depart="0.00" departLane="gneE186_0" departPos="49.58" departSpeed="0.00" departDelay="0.00" arrival="300.00" arrivalLane="gneE12_0" arrivalPos="41.22" arrivalSpeed="12.94" duration="300.00" routeLength="2337.31" waitingTime="7.00" waitingCount="2" stopTime="61.00" timeLoss="61.45" rerouteNo="146" devices="tripinfo_driver_16 taxi_driver_16 person_driver_16" vType="driver" speedFactor="1.01" vaporized="traci">
        <taxi customers="1" occupiedDistance="721.28" occupiedTime="77.00"/>
    </tripinfo>
    <tripinfo id="driver_18" depart="0.00" departLane="-gneE55_0" departPos="46.71" departSpeed="0.00" departDelay="0.00" arrival="300.00" arrivalLane="gneE174_0" arrivalPos="78.16" arrivalSpeed="8.52" duration="300.00" routeLength="2670.28" waitingTime="5.00" waitingCount="1" stopTime="0.00" timeLoss="75.09" rerouteNo="359" devices="tripinfo_driver_18 taxi_driver_18" vType="driver" speedFactor="0.94" vaporized="traci">
        <taxi customers="0" occupiedDistance="0.00" occupiedTime="0.00"/>
    </tripinfo>
    <tripinfo id="driver_19" depart="0.00" departLane="gneE135_0" departPos="80.64" departSpeed="0.00" departDelay="0.00" arrival="300.00" arrivalLane="gneE186_0" arrivalPos="84.95" arrivalSpeed="4.75" duration="300.00" routeLength="2727.87" waitingTime="3.00" waitingCount="1" stopTime="0.00" timeLoss="77.98" rerouteNo="357" devices="tripinfo_driver_19 taxi_driver_19" vType="driver" speedFactor="0.91" vaporized="traci">
        <taxi customers="0" occupiedDistance="0.00" occupiedTime="0.00"/>
    </tripinfo>
    <tripinfo id="driver_21" depart="0.00" departLane="gneE44_0" departPos="19.00" departSpeed="0.00" departDelay="0.00" arrival="300.00" arrivalLane=":gneJ87_13_0" arrivalPos="4.49" arrivalSpeed="5.90" duration="300.00" routeLength="2942.28" waitingTime="0.00" waitingCount="0" stopTime="0.00" timeLoss="65.79" rerouteNo="366" devices="tripinfo_driver_21 taxi_driver_21" vType="driver" speedFactor="0.96" vaporized="traci">
        <taxi customers="0" occupiedDistance="0.00" occupiedTime="0.00"/>
    </tripinfo>
    <tripinfo id="driver_27" depart="0.00" departLane="gneE14_0" departPos="38.26" departSpeed="0.00" departDelay="0.00" arrival="300.00" arrivalLane="gneE143_0" arrivalPos="53.87" arrivalSpeed="10.06" duration="300.00" routeLength="2865.61" waitingTime="0.00" waitingCount="0" stopTime="0.00" timeLoss="65.15" rerouteNo="362" devices="tripinfo_driver_27 taxi_driver_27" vType="driver" speedFactor="1.00" vaporized="traci">
        <taxi customers="0" occupiedDistance="0.00" occupiedTime="0.00"/>
    </tripinfo>
    <tripinfo id="driver_28" depart="0.00" departLane="gneE133_0" departPos="25.88" departSpeed="0.00" departDelay="0.00" arrival="300.00" arrivalLane="-gneE175_0" arrivalPos="39.80" arrivalSpeed="13.57" duration="300.00" routeLength="3258.54" waitingTime="0.00" waitingCount="0" stopTime="0.00" timeLoss="62.12" rerouteNo="372" devices="tripinfo_driver_28 taxi_driver_28" vType="driver" speedFactor="1.09" vaporized="traci">
        <taxi customers="0" occupiedDistance="0.00" occupiedTime="0.00"/>
    </tripinfo>
    <tripinfo id="driver_30" depart="0.00" departLane="-gneE284_0" departPos="70.90" departSpeed="0.00" departDelay="0.00" arrival="300.00" arrivalLane=":gneJ62_10_0" arrivalPos="4.14" arrivalSpeed="7.05" duration="300.00" routeLength="3184.73" waitingTime="0.00" waitingCount="0" stopTime="0.00" timeLoss="59.24" rerouteNo="368" devices="tripinfo_driver_30 taxi_driver_30" vType="driver" speedFactor="1.02" vaporized="traci">
        <taxi customers="0" occupiedDistance="0.00" occupiedTime="0.00"/>
    </tripinfo>
    <tripinfo id="driver_53" depart="0.00" departLane="gneE539_0" departPos="32.95" departSpeed="0.00" departDelay="0.00" arrival="300.00" arrivalLane="gneE24_0" arrivalPos="36.76" arrivalSpeed="13.08" duration="300.00" routeLength="3058.12" waitingTime="0.00" waitingCount="0" stopTime="0.00" timeLoss="75.81" rerouteNo="370" devices="tripinfo_driver_53 taxi_driver_53" vType="driver" speedFactor="1.02" vaporized="traci">
        <taxi customers="0" occupiedDistance="0.00" occupiedTime="0.00"/>
    </tripinfo>
    <tripinfo id="driver_57" depart="0.00" departLane="gneE502_0" departPos="13.15" departSpeed="0.00" departDelay="0.00" arrival="300.00" arrivalLane="-gneE63_0" arrivalPos="0.42" arrivalSpeed="5.20" duration="300.00" routeLength="2932.11" waitingTime="0.00" waitingCount="0" stopTime="0.00" timeLoss="66.34" rerouteNo="365" devices="tripinfo_driver_57 taxi_driver_57" vType="driver" speedFactor="0.97" vaporized="traci">
        <taxi customers="0" occupiedDistance="0.00" occupiedTime="0.00"/>
    </tripinfo>
    <tripinfo id="driver_62" depart="16.00" departLane="gneE115_0" departPos="45.32" departSpeed="0.00" departDelay="0.00" arrival="300.00" arrivalLane="-gneE208_0" arrivalPos="7.86" arrivalSpeed="8.20" duration="284.00" routeLength="1923.69" waitingTime="12.00" waitingCount="3" stopTime="61.00" timeLoss="59.32" rerouteNo="154" devices="tripinfo_driver_62 taxi_driver_62 person_driver_62" vType="driver" speedFactor="0.96" vaporized="traci">
        <taxi customers="1" occupiedDistance="401.02" occupiedTime="46.00"/>
    </tripinfo>
    <tripinfo id="driver_71" depart="184.00" departLane="-gneE122_0" departPos="36.59" departSpeed="0.00" departDelay="0.00" arrival="300.00" arrivalLane="-gneE181_0" arrivalPos="45.36" arrivalSpeed="12.93" duration="116.00" routeLength="1197.41" waitingTime="0.00" waitingCount="0" stopTime="0.00" timeLoss="31.62" rerouteNo="141" devices="tripinfo_driver_71 taxi_driver_71" vType="driver" speedFactor="1.03" vaporized="traci">
        <taxi customers="0" occupiedDistance="0.00" occupiedTime="0.00"/>
    </tripinfo>
    <personinfo id="customer_37" depart="138.00" type="DEFAULT_PEDTYPE">
        <ride waitingTime="105.00" vehicle="driver_31" depart="243.00" arrival="311.00" arrivalPos="85.60" duration="68.00" routeLength="650.23" timeLoss="19.37"/>
    </personinfo>
    <personinfo id="customer_38" depart="142.00" type="DEFAULT_PEDTYPE">
        <ride waitingTime="88.00" vehicle="driver_64" depart="230.00" arrival="314.00" arrivalPos="85.60" duration="84.00" routeLength="835.97" timeLoss="25.66"/>
    </personinfo>
    <personinfo id="customer_36" depart="138.00" type="DEFAULT_PEDTYPE">
        <ride waitingTime="61.00" vehicle="driver_40" depart="199.00" arrival="329.00" arrivalPos="85.60" duration="130.00" routeLength="1271.81" timeLoss="31.12"/>
    </personinfo>
    <personinfo id="customer_47" depart="222.00" type="DEFAULT_PEDTYPE">
        <ride waitingTime="61.00" vehicle="driver_60" depart="283.00" arrival="332.00" arrivalPos="85.60" duration="49.00" routeLength="439.02" timeLoss="14.79"/>
    </personinfo>
    <personinfo id="customer_39" depart="154.00" type="DEFAULT_PEDTYPE">
        <ride waitingTime="72.00" vehicle="driver_9" depart="226.00" arrival="333.00" arrivalPos="85.60" duration="107.00" routeLength="1068.86" timeLoss="26.21"/>
    </personinfo>
    <personinfo id="customer_41" depart="168.00" type="DEFAULT_PEDTYPE">
        <ride waitingTime="86.00" vehicle="driver_12" depart="254.00" arrival="340.00" arrivalPos="85.60" duration="86.00" routeLength="820.18" timeLoss="20.53"/>
    </personinfo>
    <personinfo id="customer_42" depart="170.00" type="DEFAULT_PEDTYPE">
        <ride waitingTime="76.00" vehicle="driver_5" depart="246.00" arrival="343.00" arrivalPos="85.60" duration="97.00" routeLength="934.44" timeLoss="25.67"/>
    </personinfo>
    <tripinfo id="driver_3" depart="0.00" departLane="-gneE329_0" departPos="0.63" departSpeed="0.00" departDelay="0.00" arrival="350.00" arrivalLane=":gneJ251_1_0" arrivalPos="13.96" arrivalSpeed="12.70" duration="350.00" routeLength="3655.21" waitingTime="0.00" waitingCount="0" stopTime="0.00" timeLoss="76.51" rerouteNo="430" devices="tripinfo_driver_3 taxi_driver_3" vType="driver" speedFactor="1.04" vaporized="traci">
        <taxi customers="0" occupiedDistance="0.00" occupiedTime="0.00"/>
    </tripinfo>
    <tripinfo id="driver_4" depart="0.00" departLane="-gneE349_0" departPos="50.37" departSpeed="0.00" departDelay="0.00" arrival="350.00" arrivalLane="-gneE359_0" arrivalPos="77.39" arrivalSpeed="10.34" duration="350.00" routeLength="2687.96" waitingTime="14.00" waitingCount="3" stopTime="61.00" timeLoss="89.67" rerouteNo="136" devices="tripinfo_driver_4 taxi_driver_4 person_driver_4" vType="driver" speedFactor="1.02" vaporized="traci">
        <taxi customers="1" occupiedDistance="637.81" occupiedTime="84.00"/>
    </tripinfo>
    <tripinfo id="driver_8" depart="0.00" departLane="-gneE423_0" departPos="63.26" departSpeed="0.00" departDelay="0.00" arrival="350.00" arrivalLane="-gneE449_0" arrivalPos="16.02" arrivalSpeed="8.65" duration="350.00" routeLength="3287.35" waitingTime="0.00" waitingCount="0" stopTime="0.00" timeLoss="72.28" rerouteNo="425" devices="tripinfo_driver_8 taxi_driver_8" vType="driver" speedFactor="0.97" vaporized="traci">
        <taxi customers="0" occupiedDistance="0.00" occupiedTime="0.00"/>
    </tripinfo>
    <tripinfo id="driver_13" depart="0.00" departLane="-gneE338_0" departPos="9.39" departSpeed="0.00" departDelay="0.00" arrival="350.00" arrivalLane="-gneE340_0" arrivalPos="63.85" arrivalSpeed="8.43" duration="350.00" routeLength="3387.50" waitingTime="2.00" waitingCount="1" stopTime="0.00" timeLoss="81.94" rerouteNo="423" devices="tripinfo_driver_13 taxi_driver_13" vType="driver" speedFactor="1.06" vaporized="traci">
        <taxi customers="0" occupiedDistance="0.00" occupiedTime="0.00"/>
    </tripinfo>
    <tripinfo id="driver_14" depart="0.00" departLane="gneE395_0" departPos="45.22" departSpeed="0.00" departDelay="0.00" arrival="350.00" arrivalLane="-gneE341_0" arrivalPos="12.12" arrivalSpeed="8.75" duration="350.00" routeLength="3608.20" waitingTime="0.00" waitingCount="0" stopTime="0.00" timeLoss="73.74" rerouteNo="428" devices="tripinfo_driver_14 taxi_driver_14" vType="driver" speedFactor="1.00" vaporized="traci">
        <taxi customers="0" occupiedDistance="0.00" occupiedTime="0.00"/>
    </tripinfo>
    <tripinfo id="driver_20" depart="0.00" departLane="-gneE153_0" departPos="77.46" departSpeed="0.00" departDelay="0.00" arrival="350.00" arrivalLane="-gneE517_0" arrivalPos="82.33" arrivalSpeed="9.84" duration="350.00" routeLength="2754.44" waitingTime="5.00" waitingCount="2" stopTime="61.00" timeLoss="74.54" rerouteNo="207" devices="tripinfo_driver_20 taxi_driver_20 person_driver_20" vType="driver" speedFactor="0.94" vaporized="traci">
        <taxi customers="1" occupiedDistance="511.97" occupiedTime="60.00"/>
    </tripinfo>
    <tripinfo id="driver_24" depart="0.00" departLane="gneE135_0" departPos="16.09" departSpeed="0.00" departDelay="0.00" arrival="350.00" arrivalLane="gneE84_0" arrivalPos="29.68" arrivalSpeed="8.44" duration="350.00" routeLength="3230.94" waitingTime="0.00" waitingCount="0" stopTime="0.00" timeLoss="89.05" rerouteNo="420" devices="tripinfo_driver_24 taxi_driver_24" vType="driver" speedFactor="0.97" vaporized="traci">
        <taxi customers="0" occupiedDistance="0.00" occupiedTime="0.00"/>
    </tripinfo>
    <tripinfo id="driver_29" depart="0.00" departLane="gneE170_0" departPos="65.14" departSpeed="0.00" departDelay="0.00" arrival="350.00" arrivalLane="-gneE569_0" arrivalPos="80.22" arrivalSpeed="7.97" duration="350.00" routeLength="2882.01" waitingTime="7.00" waitingCount="3" stopTime="61.00" timeLoss="93.32" rerouteNo="158" devices="tripinfo_driver_29 taxi_driver_29 person_driver_29" vType="driver" speedFactor="1.00" vaporized="traci">
        <taxi customers="1" occupiedDistance="1010.86" occupiedTime="91.00"/>
    </tripinfo>
    <tripinfo id="driver_36" depart="0.00" departLane="gneE291_0" departPos="49.26" departSpeed="0.00" departDelay="0.00" arrival="350.00" arrivalLane="gneE35_0" arrivalPos="75.16" arrivalSpeed="12.50" duration="350.00" routeLength="2786.83" waitingTime="8.00" waitingCount="2" stopTime="61.00" timeLoss="78.09" rerouteNo="172" devices="tripinfo_driver_36 taxi_driver_36 person_driver_36" vType="driver" speedFactor="1.00" vaporized="traci">
        <taxi customers="1" occupiedDistance="918.28" occupiedTime="99.00"/>
    </tripinfo>
    <tripinfo id="driver_42" depart="0.00" departLane="-gneE264_0" departPos="29.35" departSpeed="0.00" departDelay="0.00" arrival="350.00" arrivalLane="-gneE428_0" arrivalPos="42.40" arrivalSpeed="16.94" duration="350.00" routeLength="2647.98" waitingTime="6.00" waitingCount="2" stopTime="61.00" timeLoss="71.09" rerouteNo="199" devices="tripinfo_driver_42 taxi_driver_42 person_driver_42" vType="driver" speedFactor="1.01" vaporized="traci">
        <taxi customers="1" occupiedDistance="766.65" occupiedTime="81.00"/>
    </tripinfo>
    <tripinfo id="driver_70" depart="184.00" departLane="-gneE331_0" departPos="36.31" departSpeed="0.00" departDelay="0.00" arrival="350.00" arrivalLane="-gneE419_0" arrivalPos="26.48" arrivalSpeed="11.74" duration="166.00" routeLength="1666.80" waitingTime="0.00" waitingCount="0" stopTime="0.00" timeLoss="42.61" rerouteNo="206" devices="tripinfo_driver_70 taxi_driver_70" vType="driver" speedFactor="1.01" vaporized="traci">
        <taxi customers="0" occupiedDistance="0.00" occupiedTime="0.00"/>
    </tripinfo>